% Model:              helix_arf_verified_ni_paramsw.mph
% Version:            COMSOL 5.5.0.359
% Date:               Jun 5 2020, 00:17
% Table:              Table 4 - Surface Integration 1
% N                                               (((1/(2*rholiq*c0^2)*acpr.p_t*conj(acpr.p_t)/2-1/2*rholiq*(acpr.vx*conj(acpr.vx)+acpr.vy*conj(acpr.vy)+acpr.vz*conj(acpr.vz))/2)*acpr.nz+rholiq*real((acpr.nx*acpr.vx+acpr.ny*acpr.vy+acpr.nz*acpr.vz)*conj(acpr.vz))/2)) (N)
1                                                 -3.905378430594528E-11
2                                                 -1.4894567810581898E-10
3                                                 -3.095397892708616E-10
4                                                 -4.960935132017952E-10
